10
step:0 columns:id,pos dt:1 cell:2.886751345948129,2.886751345948129 
A 0.000000 0.000000 0.000000
A 0.000000 0.000000 0.000000
A 0.000000 0.000000 0.000000
A 0.000000 0.000000 0.000000
A 0.000000 0.000000 0.000000
A 0.000000 0.000000 0.000000
A 0.000000 0.000000 0.000000
A 0.000000 0.000000 0.000000
A 0.000000 0.000000 0.000000
A 0.000000 0.000000 0.000000
